 TITLE = "NonConforming"
 VARIABLES = "Grid", "L1 error", "L2 error", "Linf error", "CPU_time"
 ZONE T="P1", I=16, F=POINT
 002     1.5762395932946753E-002     2.3381645901237941E-002     7.1754037906902823E-002           0.1120 
 004     1.0364260018540405E-002     1.6380361968808151E-002     9.1844308444686162E-002           0.2314 
 006     6.7342302788851787E-003     1.0472418066382369E-002     6.6189174295888165E-002           0.1431 
 008     4.6967222530349779E-003     7.2670022104047898E-003     5.0787018783246096E-002           0.1745 
 010     3.4658368574415612E-003     5.3631199868598286E-003     4.0395255224752236E-002           0.2002 
 012     2.6665539064685126E-003     4.1406452415906044E-003     3.2367517717063699E-002           0.2822 
 016     1.7270174688607924E-003     2.7124608511213378E-003     2.3378200753920830E-002           0.4729 
 020     1.2143480294258004E-003     1.9350254217027224E-003     1.7973443551779322E-002           0.6518 
 024     9.0389915640004352E-004     1.4611927484608693E-003     1.4489121039425235E-002           0.7122 
 032     5.6034012302287237E-004     9.3117999834278092E-004     1.0391403487736151E-002           1.4588 
 040     3.8297325349819682E-004     6.5320452030856674E-004     8.0809304635225399E-003           2.6197 
 048     2.7903455499866839E-004     4.8768790752744766E-004     6.5876772000298400E-003           3.5919 
 064     1.6785360413997433E-004     3.0657926436276396E-004     4.7971337948715664E-003          10.5398 
 080     1.1247948067252871E-004     2.1356916235648155E-004     3.7621618061104423E-003          17.2439 
 096     8.0838354367123537E-005     1.5890130560060374E-004     3.0906780659580857E-003          43.7653 
 128     4.7769422217096385E-005     9.9683514693582135E-005     2.2746297306542873E-003         110.9042 

 ZONE T="P2", I=16, F=POINT
 002     3.6253466349070746E-003     6.4563249848582629E-003     5.2747096143911931E-002           0.1771 
 004     1.4059322741409321E-003     2.3753573656409583E-003     1.8055662391187541E-002           0.4575 
 006     5.6230059901405424E-004     9.5041070514758849E-004     9.0598454240890594E-003           0.2413 
 008     2.7506847760161662E-004     4.7418318417843887E-004     5.5555934793162787E-003           0.4363 
 010     1.5632940223025995E-004     2.7513133827798236E-004     3.7115417284338537E-003           0.3608 
 012     9.7606133608962056E-005     1.7550560051858601E-004     2.6346072398117978E-003           0.5679 
 016     4.5491863044197437E-005     8.4781889183123291E-005     1.3897737764197657E-003           0.7887 
 020     2.4776212667565861E-005     4.7531371188834209E-005     7.9640657782770186E-004           1.1427 
 024     1.4972133478735292E-005     2.9537533281961662E-005     5.0028126199710976E-004           1.3794 
 032     6.7593633147692954E-006     1.4044337970816119E-005     2.5467229500723831E-004           2.5592 
 040     3.6572692137439920E-006     7.9649748920215112E-006     1.5773515896227996E-004           4.6917 
 048     2.2148521760689912E-006     5.0313069171415638E-006     1.0726651451491154E-004           6.9307 
 064     1.0005827985589575E-006     2.4466420116720804E-006     5.8757538862530545E-005          11.1503 
 080     5.3848732973580577E-007     1.4012030500610512E-006     3.8618891121888765E-005          28.7769 
 096     3.2387193810690529E-007     8.8917128244198709E-007     2.7396035060966994E-005          52.9653 
 128     1.4467375285681445E-007     4.3382735657796695E-007     1.5716397443243935E-005         152.3438 

 ZONE T="P3", I=16, F=POINT
 002     8.7076633196938842E-004     1.5894096694463674E-003     1.3844366950016340E-002           0.2880 
 004     1.2696487693794137E-004     2.2267322385900731E-004     2.2133539418892068E-003           0.8119 
 006     3.2956913454305971E-005     5.7526152094434084E-005     6.8909710033165927E-004           0.6533 
 008     1.2262583035515934E-005     2.1541391498353067E-005     2.6284806964077534E-004           0.5888 
 010     5.7422460959508748E-006     1.0233584070697367E-005     1.2673566794874080E-004           0.6308 
 012     3.0285929970602224E-006     5.5414510153219344E-006     7.5246023686581509E-005           0.9561 
 016     1.0491148435405656E-006     2.0245271287109444E-006     3.0676253641115370E-005           1.7328 
 020     4.5320724717294193E-007     9.1054411979398842E-007     1.4927488637739295E-005           1.7920 
 024     2.2779765066270223E-007     4.7252727336629852E-007     8.2967987501958440E-006           2.6392 
 032     7.8055758274276855E-008     1.6934172390358273E-007     3.4001245163839400E-006           4.8859 
 040     3.3424392068723550E-008     7.6177434168584366E-008     1.7166351882202946E-006           8.6121 
 048     1.6705936887645646E-008     3.9606014964387107E-008     9.7590421332949262E-007          13.9314 
 064     5.5989244746556163E-009     1.4159500556890450E-008     4.0614531937599452E-007          26.1014 
 080     2.4018405501717469E-009     6.3981637637649460E-009     2.0551218127273785E-007          61.8465 
 096     1.2004529730936285E-009     3.3450046941535798E-009     1.1795565357797244E-007         109.2316 
 128     4.0032347500873067E-010     1.2027595875443710E-009     4.9279218483633258E-008         202.8137 

 ZONE T="P4", I=16, F=POINT
 002     1.6844788918776658E-004     3.1226189411213241E-004     4.0152950124764386E-003           0.4686 
 004     1.1065791333970170E-005     2.0336460448360514E-005     3.3222543907800162E-004           1.3536 
 006     1.9546122331060584E-006     3.6502153185628895E-006     7.4951452090167570E-005           0.6768 
 008     5.4540048952472651E-007     1.0412821106491396E-006     2.1284298222387643E-005           0.8599 
 010     2.0168327254521724E-007     3.9302325471915485E-007     7.7611766401558535E-006           1.5723 
 012     8.8116325090410054E-008     1.7601032574673079E-007     3.6433446890891258E-006           1.6041 
 016     2.2831626182075405E-008     4.8536423533093034E-008     1.1511898810115384E-006           2.5434 
 020     7.9246036322729918E-009     1.7760565679753479E-008     4.7592763574577646E-007           4.6030 
 024     3.3628680978059620E-009     7.7937282562677580E-009     2.2552004080855781E-007           5.1186 
 032     8.8316298144539195E-010     2.1407064177789476E-009     6.4358043644352492E-008          10.6756 
 040     3.0638656541361503E-010     7.8420007190220826E-010     2.5862973207502193E-008          19.1286 
 048     1.2914186504660764E-010     3.4447085340493324E-010     1.2576793884111481E-008          31.8353 
 064     3.2815147730574763E-011     9.3898706671021653E-011     3.7888427673049563E-009          72.9704 
 080     1.1370707753535086E-011     3.4331109923867176E-011     1.5571383071844025E-009         113.1383 
 096     4.7914701818046584E-012     1.5090201017959406E-011     7.3786204923820264E-010         210.0488 
 128     1.2260890003989122E-012     4.1255094921183278E-012     2.3363891377137236E-010         466.7964 

 ZONE T="P5", I=16, F=POINT
 002     2.7494046196378569E-005     5.4451560169186072E-005     5.1551883221490069E-004           0.7451 
 004     8.7821092531613021E-007     1.7199166592707393E-006     2.5167487795296761E-005           2.2463 
 006     1.0629815682112847E-007     2.0671014654187925E-007     2.9991604082457712E-006           1.0578 
 008     2.1937764137670149E-008     4.4240565229078475E-008     7.5389076081844308E-007           1.8781 
 010     6.3624054978692865E-009     1.3123871343859329E-008     2.2731124116326384E-007           2.5910 
 012     2.2713647044438679E-009     4.8283940172143326E-009     8.4927505694665228E-008           2.9965 
 016     4.4483555454548471E-010     9.9150066463591987E-010     1.8344708779816088E-008           4.9587 
 020     1.2453064373319526E-010     2.8933170553871323E-010     5.9120521256339487E-009           5.8209 
 024     4.4520207331185923E-011     1.0617362572615998E-010     2.7863736873356970E-009           9.7471 
 032     8.7725926379695803E-012     2.2093812545254934E-011     7.8781819956574850E-010          19.9265 
 040     2.5862898067585961E-012     7.0617417440244238E-012     5.8118232448833851E-010          37.4622 
 048     1.0134389587072363E-012     3.2778446213410384E-012     4.9621107223174477E-010          64.9338 
 064     2.7074757875447268E-013     1.4073917658353232E-012     4.4963910372786131E-010         146.7397 
 080     9.8346906786947186E-014     6.1052229043928181E-013     1.3211937099910642E-010         211.6381 
 096     6.6955164916157609E-014     4.3278467843067118E-013     1.1908796171411495E-010         394.5005 
 128     5.9224953813882371E-014     2.7008890381020901E-013     1.3201151283226409E-010         674.3843 

 ZONE T="P6", I=16, F=POINT
 002     4.4108547273643099E-006     8.8354291273018398E-006     1.3510401403238337E-004           1.1640 
 004     7.0727645473645014E-008     1.4317051449220565E-007     2.2506403517946749E-006           3.8077 
 006     5.5478072366404227E-009     1.1464949833964757E-008     1.8881898877082248E-007           1.6943 
 008     8.4557729235008279E-010     1.8169910730377494E-009     3.4430846423960659E-008           2.9881 
 010     1.9500516590763171E-010     4.3043343621656036E-010     9.8414112206790527E-009           3.5064 
 012     5.8831768653220696E-011     1.3291956395468524E-010     3.6652019752558829E-009           5.5000 
 016     1.0427692359957360E-011     2.7133862508444455E-011     3.0631973624295483E-009           9.1231 
 020     3.0047054629936405E-012     1.1050247041906374E-011     1.6107463141068479E-009          10.9610 
 024     1.1051058165734422E-012     5.4902660605904268E-012     6.6465655201852769E-010          19.2211 
 032     3.9517594615071661E-013     3.0575762508176392E-012     5.2100024294787772E-010          37.0075 
 040     1.7112566322981447E-013     1.5872249723157050E-012     2.6580337930681708E-010          71.3788 
 048     1.3059659566782468E-013     1.2438000135399793E-012     3.1773561559589325E-010         125.0653 
 064     7.1130481539162577E-014     6.0033672188693058E-013     1.6080370368598551E-010         279.1578 
 080     5.3423311258383177E-014     3.1860243429891440E-013     7.5024653156674503E-011         546.3860 
 096     5.8309050600445101E-014     2.8236663518582508E-013     1.1284440049053046E-010         560.0270 
 128     6.7481313150963532E-014     2.1185301039336828E-013     1.3457379793484140E-010        2030.3888 
