 TITLE = "NonConforming" 
 VARIABLES = "Grid", "L1 error", "L2 error", "Linf error", "CPU_time" 
 ZONE T="P1", I=15, F=POINT 
 002     3.8059507206322923E-002     6.8783316492200819E-002    0.35684361422269983               0.5216 
 004     2.5242488656878455E-002     5.2744866590854429E-002    0.35128118128034735               1.3619 
 006     1.7524360646889552E-002     4.2049903350106881E-002    0.31856729134640016               1.3667 
 008     1.3291283511074449E-002     3.3865149295878555E-002    0.37996291267110038               0.8270 
 010     1.0742747147903157E-002     2.8004940247306858E-002    0.37696856764251407               1.1066 
 012     8.4524184542693181E-003     2.2436666140387484E-002    0.28001508312665635               1.2284 
 016     5.5885314556168549E-003     1.5095373172351531E-002    0.22853088108298270               2.1909 
 020     3.9472952836881155E-003     1.0838657353571627E-002    0.18361259273915742               2.8760 
 024     2.9216535501301760E-003     8.1134513875312248E-003    0.14380260375530352               5.6041 
 032     1.7883393877303720E-003     5.0337890743291855E-003    0.10080823078807022              12.1519 
 040     1.2065538702058121E-003     3.4476809143236687E-003    7.6656128803772816E-002          29.6887 
 048     8.6898039827586052E-004     2.5325849719808639E-003    6.1667955955121201E-002          56.3098 
 064     5.1928642617527702E-004     1.5754514331525844E-003    4.4531718947530052E-002         156.6331 
 080     3.5478158235476047E-004     1.1074488658858635E-003    3.5104359950953068E-002         351.7877 
 096     2.6378181358078238E-004     8.3949965311536025E-004    2.9115735230356599E-002         701.6869 
 ZONE T="P2", I=15, F=POINT 
 002     3.0578857391486820E-002     6.0350172469423959E-002    0.65398961372153597               0.9744 
 004     1.1012864398624412E-002     2.7896712331952667E-002    0.24355535149618834               2.9583 
 006     5.6746836218604544E-003     1.5898614184430313E-002    0.18523040969534765               3.4603 
 008     2.9749299048523188E-003     8.5761972845032845E-003    0.10771734212373607               2.2236 
 010     2.0765154544122406E-003     6.2785698560609733E-003    0.10013802902084912               3.4540 
 012     1.3733470849444701E-003     4.2941851234935694E-003     6.9520017376882848E-002           4.6428 
 016     6.7450122335746326E-004     2.2304536907563682E-003     3.7267841504888821E-002           8.3656 
 020     3.8011083163050168E-004     1.2887369936243180E-003     2.6293113275586144E-002          15.3575 
 024     2.3132772451294088E-004     7.9151030271908140E-004     1.8682033518326868E-002          30.4283 
 032     1.0407967692396814E-004     3.6007074162464948E-004     9.7696783094702866E-003          80.0600 
 040     5.6418230573258079E-005     1.9559358603821997E-004     5.8448672375988053E-003         221.1974 
 048     3.4136547020708813E-005     1.1838610573956744E-004     4.0518317243378732E-003         447.9608 
 064     1.5305688750454879E-005     5.3118168215940758E-005     2.3744009905826147E-003        1252.6130 
 080     8.1455378430065589E-006     2.8381946000082931E-005     1.5457542371057897E-003        3025.5362 
 096     4.8448296364941329E-006     1.6982349625922897E-005     1.0778997720501948E-003        6234.3260 
 ZONE T="P3", I=15, F=POINT 
 002     1.5678374738219650E-002     3.3139520246386965E-002    0.27212094441779211               1.8333 
 004     4.6436241021791556E-003     1.3390597351487397E-002    0.15427846205462359               6.9496 
 006     1.6934285069686425E-003     5.2251061658909973E-003     8.4312482629884222E-002           9.3619 
 008     6.7853186033460533E-004     2.2247838969284453E-003     4.3014217256861720E-002           8.2620 
 010     3.1882635045611007E-004     1.1258120819203515E-003     2.4360796694317344E-002          11.8773 
 012     1.7072770715901152E-004     6.1834483602920057E-004     1.4425303302200376E-002          16.9643 
 016     6.0146033036913323E-005     2.3093539802756665E-004     5.0601646427228530E-003          35.5499 
 020     2.4277791957037060E-005     9.5249302080836767E-005     2.3667090932706358E-003          66.5495 
 024     1.1145671037428163E-005     4.4570040720517028E-005     1.2029696672559709E-003         139.9965 
 032     3.5849190277715469E-006     1.3971327622641128E-005     3.8828236429289120E-004         392.2871 
 040     1.5073688432853113E-006     5.9719804144785677E-006     1.9709009058654914E-004        1141.0752 
 048     7.0894797300021796E-007     2.8141579206217090E-006     1.1148045839348697E-004        2301.2101 
 064     2.4259545295826762E-007     9.4356304403994961E-007     4.8103469040050584E-005        6746.1423 
 080     1.0572585104562394E-007     4.0595020469239713E-007     2.6395354693953266E-005       16177.4540 
 096     5.5191018771145055E-008     2.1090878677532458E-007     1.5604411993663803E-005       24332.2813
 ZONE T="P4", I=15, F=POINT 
 002     1.4196324378812884E-002     2.8787311506089850E-002    0.33388523402574188               3.7870 
 004     2.0162637071485107E-003     5.9776836612879265E-003    0.10448304261997210              17.1832 
 006     4.7155985914629098E-004     1.6273165206549284E-003     3.9749252096377141E-002          26.8424 
 008     1.4241392158824995E-004     5.3597224564851933E-004     1.4795811513678814E-002          20.9969 
 010     5.0455182673828040E-005     2.0653166665536124E-004     6.2059735221389190E-003          38.6562 
 012     2.1067353387202564E-005     8.8839710175399032E-005     2.5607752639738024E-003          59.3145 
 016     5.4737088391637240E-006     2.3059932823733311E-005     7.6978372123370775E-004         133.6003 
 020     2.0647092200774035E-006     8.7981424165274197E-006     2.7783782078927288E-004         250.1177 
 024     8.9752619100864992E-007     3.8763827389589003E-006     1.2175253703716749E-004         458.9453 
 032     2.3859367565580188E-007     1.0276978601386243E-006     3.4739599263033938E-005        1065.0170 
 040     8.3805712453939426E-008     3.6022212902514849E-007     1.2451656571599301E-005        3323.3615 
 048     3.4415729836809152E-008     1.5009737716602599E-007     7.2188221409419384E-006        6966.4218 
 064     8.6886639253093822E-009     3.7367787556508001E-008     2.1571826085420298E-006       33339.9179 
 080     2.9034147652580808E-009     1.2560261428591647E-008     9.5867044880293406E-007       56350.8076 
 096     1.1924946201549537E-009     5.1600239168052831E-009     4.5178011642832416E-007       89781.5964
 ZONE T="P5", I=14, F=POINT 
 002     8.2884056125974680E-003     1.7069570587696162E-002    0.17209016720122872               8.1665 
 004     8.6726919844764844E-004     2.7197654994922907E-003     5.3957439715640376E-002          43.4741 
 006     1.3270008622412219E-004     5.1269135854854569E-004     1.5776382502368236E-002          73.4402 
 008     3.1217069503484866E-005     1.2545677088192334E-004     3.9813039384108961E-003          59.1359 
 010     9.5703528738935252E-006     4.0931944930551542E-005     1.4002093252889480E-003         114.4568 
 012     3.7022258621563677E-006     1.6561930276983996E-005     5.9028818115258730E-004         180.5512 
 016     7.8775972879022533E-007     3.5735295320217075E-006     1.2258606182413700E-004         420.3434 
 020     2.2811327187626022E-007     1.0378082218329605E-006     3.6623395881285603E-005         781.1019 
 024     7.6000662305329859E-008     3.5754184213159628E-007     1.2486420205348736E-005        1547.1208 
 032     1.3464837554591617E-008     6.4384046745215336E-008     2.3419754002773630E-006        4769.4819 
 040     3.4342495885595856E-009     1.6321554198632980E-008     8.2185574168391895E-007       10964.6968 
 048     1.1562892390511908E-009     5.4646555546381968E-009     3.4449038999184722E-007       18700.5674 
 064     2.0794316021324124E-010     9.6315834345649957E-010     8.6240691032912764E-008       60469.6489 
 080     5.6919273353118023E-011     2.5736763012744020E-010     2.9026448800095750E-008      145112.6718 
 ZONE T="P6", I=13, F=POINT 
 002     4.9866740974446816E-003     1.1110054222230013E-002    0.15760560841818672              17.9032 
 004     3.5938228928709661E-004     1.1877273477634363E-003     2.9542282405425002E-002         105.6379 
 006     4.0614887963676127E-005     1.5845278758465798E-004     5.3154444881262641E-003         189.1255 
 008     7.4148098909605902E-006     3.3302146211068041E-005     1.2067023116948405E-003         157.2221 
 010     1.8767322204880127E-006     8.7022371701684556E-006     3.6491616692480022E-004         305.5655 
 012     5.7557313690033292E-007     2.7240253985053480E-006     1.0936642356007553E-004         504.1990 
 016     8.2383433894235287E-008     4.0772867372693041E-007     1.9313093542194792E-005        1126.2231 
 020     1.9095700113159785E-008     9.3389881759427423E-008     4.1943870341398792E-006        2128.0723 
 024     5.6804647383573463E-009     2.8349356783844000E-008     1.1993074577887342E-006        3955.1546 
 032     8.6473339981568329E-010     4.1913737386039535E-009     2.3821629469011896E-007       10932.2143 
 040     1.9193675545799502E-010     9.4051217614499763E-010     6.5857189035511965E-008       25181.2885 
 048     5.7441665554097534E-011     2.7932899231922952E-010     1.9282013319354974E-008       50846.8160 
 064     8.8072203499388915E-012     3.9547100777089147E-011     4.1061865019287325E-009      168157.9339 
